python dir    : /Users/osmanmamun/Suncat_Code_Base/decaf-espresso/decaf
espresso dir  : /Users/osmanmamun/src/QE/qe-6.3/bin/pw.x
executable    : pw.x -in pw.pwi

     Program PWSCF v.6.3 starts on 17May2019 at 12:51:48 

     This program is part of the open-source Quantum ESPRESSO suite
     for quantum simulation of materials; please cite
         "P. Giannozzi et al., J. Phys.:Condens. Matter 21 395502 (2009);
         "P. Giannozzi et al., J. Phys.:Condens. Matter 29 465901 (2017);
          URL http://www.quantum-espresso.org", 
     in publications or presentations arising from this work. More details at
     http://www.quantum-espresso.org/quote

     Serial version
     Reading input from pw.pwi
Warning: card &IONS ignored
Warning: card / ignored
Warning: card &CELL ignored
Warning: card / ignored

     Current dimensions of program PWSCF are:
     Max number of different atomic species (ntypx) = 10
     Max number of k-points (npk) =  40000
     Max angular momentum in pseudopotentials (lmaxx) =  3

     IMPORTANT: XC functional enforced from input :
     Exchange-correlation      = PBE ( 1  4  3  4 0 0)
     Any further DFT definition will be discarded
     Please, verify this is what you really want


     gamma-point specific algorithms are used

     G-vector sticks info
     --------------------
     sticks:   dense  smooth     PW     G-vecs:    dense   smooth      PW
     Sum        1135    1135    283               134957   134957   16787



     bravais-lattice index     =            0
     lattice parameter (alat)  =      10.5585  a.u.
     unit-cell volume          =    4481.2753 (a.u.)^3
     number of atoms/cell      =           10
     number of atomic types    =            3
     number of electrons       =       135.00
     number of Kohn-Sham states=           82
     kinetic-energy cutoff     =      36.7493  Ry
     charge density cutoff     =     146.9973  Ry
     convergence threshold     =      7.3E-03
     mixing beta               =       0.3000
     number of iterations used =            8  plain     mixing
     Exchange-correlation      = PBE ( 1  4  3  4 0 0)

     celldm(1)=  10.558539  celldm(2)=   0.000000  celldm(3)=   0.000000
     celldm(4)=   0.000000  celldm(5)=   0.000000  celldm(6)=   0.000000

     crystal axes: (cart. coord. in units of alat)
               a(1) = (   1.000000   0.000000   0.000000 )  
               a(2) = (   0.500000   0.866025   0.000000 )  
               a(3) = (   0.000000   0.000000   4.396019 )  

     reciprocal axes: (cart. coord. in units 2 pi/alat)
               b(1) = (  1.000000 -0.577350  0.000000 )  
               b(2) = (  0.000000  1.154701  0.000000 )  
               b(3) = (  0.000000  0.000000  0.227479 )  


     PseudoPot. # 1 for Pt read from file:
     /Users/osmanmamun/Suncat_Code_Base/decaf-espresso/gbrv15pbe/Pt.UPF
     MD5 check sum: f09d6de1a584b5a045c4fc126da2d0c4
     Pseudo is Ultrasoft + core correction, Zval = 16.0
     Generated by new atomic code, or converted to UPF format
     Using radial grid of  985 points,  6 beta functions with: 
                l(1) =   0
                l(2) =   0
                l(3) =   1
                l(4) =   1
                l(5) =   2
                l(6) =   2
     Q(r) pseudized with  8 coefficients,  rinner =    1.300   1.300   1.300
                                                       1.300   1.300

     PseudoPot. # 2 for O  read from file:
     /Users/osmanmamun/Suncat_Code_Base/decaf-espresso/gbrv15pbe/O.UPF
     MD5 check sum: 734c27235a0248c51dbae37a1fbe46ec
     Pseudo is Ultrasoft + core correction, Zval =  6.0
     Generated by new atomic code, or converted to UPF format
     Using radial grid of  737 points,  5 beta functions with: 
                l(1) =   0
                l(2) =   0
                l(3) =   1
                l(4) =   1
                l(5) =   2
     Q(r) pseudized with  8 coefficients,  rinner =    0.900   0.900   0.900
                                                       0.900   0.900

     PseudoPot. # 3 for H  read from file:
     /Users/osmanmamun/Suncat_Code_Base/decaf-espresso/gbrv15pbe/H.UPF
     MD5 check sum: 761ae9a214b05c3daf00ab9f6b793d6f
     Pseudo is Ultrasoft, Zval =  1.0
     Generated by new atomic code, or converted to UPF format
     Using radial grid of  615 points,  2 beta functions with: 
                l(1) =   0
                l(2) =   0
     Q(r) pseudized with  8 coefficients,  rinner =    0.700

     atomic species   valence    mass     pseudopotential
        Pt            16.00   195.08400     Pt( 1.00)
        O              6.00    15.99900     O ( 1.00)
        H              1.00     1.00800     H ( 1.00)

     No symmetry found



   Cartesian axes

     site n.     atom                  positions (alat units)
         1           Pt  tau(   1) = (   0.5000000   0.2886751   2.1980093  )
         2           Pt  tau(   2) = (   1.0000000   0.2886751   2.1980093  )
         3           Pt  tau(   3) = (   0.7500000   0.7216878   2.1980093  )
         4           Pt  tau(   4) = (   1.2500000   0.7216878   2.1980093  )
         5           Pt  tau(   5) = (   0.0000000   0.0000000   2.6062576  )
         6           Pt  tau(   6) = (   0.5000000   0.0000000   2.6062576  )
         7           Pt  tau(   7) = (   0.2500000   0.4330127   2.6062576  )
         8           Pt  tau(   8) = (   0.7500000   0.4330127   2.6062576  )
         9           O   tau(   9) = (   0.5000000   0.2886751   2.8239084  )
        10           H   tau(  10) = (   0.5000000   0.2886751   2.9975152  )

     number of k points=     1  Methfessel-Paxton smearing, width (Ry)=  0.0007
                       cart. coord. in units 2pi/alat
        k(    1) = (   0.0000000   0.0000000   0.0000000), wk =   2.0000000

     Dense  grid:    67479 G-vectors     FFT dimensions: (  45,  45, 180)

     Estimated max dynamical RAM per process >     314.00 MB

     Initial potential from superposition of free atoms
     Check: negative starting charge=   -1.497501

     starting charge  130.99990, renormalised to  135.00000

     negative rho (up, down):  1.543E+00 0.000E+00
     Starting wfcs are  101 randomized atomic wfcs

     total cpu time spent up to now is        1.9 secs

     Self-consistent Calculation

     iteration #  1     ecut=    36.75 Ry     beta= 0.30
     Davidson diagonalization with overlap
     ethr =  1.00E-02,  avg # of iterations = 12.0

     negative rho (up, down):  1.450E+00 0.000E+00

     total cpu time spent up to now is        4.4 secs

     total energy              =   -1698.98422761 Ry
     Harris-Foulkes estimate   =   -1720.61196987 Ry
     estimated scf accuracy    <      46.17080495 Ry

     iteration #  2     ecut=    36.75 Ry     beta= 0.30
     Davidson diagonalization with overlap
     ethr =  1.00E-02,  avg # of iterations =  4.0

     negative rho (up, down):  1.441E+00 0.000E+00

     total cpu time spent up to now is        6.6 secs

     total energy              =   -1704.91174982 Ry
     Harris-Foulkes estimate   =   -1730.31349388 Ry
     estimated scf accuracy    <     140.51054557 Ry

     iteration #  3     ecut=    36.75 Ry     beta= 0.30
     Davidson diagonalization with overlap
     ethr =  1.00E-02,  avg # of iterations =  3.0

     negative rho (up, down):  1.438E+00 0.000E+00

     total cpu time spent up to now is        8.6 secs

     total energy              =   -1714.22352494 Ry
     Harris-Foulkes estimate   =   -1724.08103380 Ry
     estimated scf accuracy    <      71.79085769 Ry

     iteration #  4     ecut=    36.75 Ry     beta= 0.30
     Davidson diagonalization with overlap
     ethr =  1.00E-02,  avg # of iterations =  3.0

     negative rho (up, down):  1.442E+00 0.000E+00

     total cpu time spent up to now is       10.5 secs

     total energy              =   -1717.74463270 Ry
     Harris-Foulkes estimate   =   -1718.69042820 Ry
     estimated scf accuracy    <       3.64500635 Ry

     iteration #  5     ecut=    36.75 Ry     beta= 0.30
     Davidson diagonalization with overlap
     ethr =  2.70E-03,  avg # of iterations =  1.0

     negative rho (up, down):  1.443E+00 0.000E+00

     total cpu time spent up to now is       12.2 secs

     total energy              =   -1717.50176231 Ry
     Harris-Foulkes estimate   =   -1718.21931548 Ry
     estimated scf accuracy    <       7.68201264 Ry

     iteration #  6     ecut=    36.75 Ry     beta= 0.30
     Davidson diagonalization with overlap
     ethr =  2.70E-03,  avg # of iterations =  1.0

     negative rho (up, down):  1.442E+00 0.000E+00

     total cpu time spent up to now is       13.9 secs

     total energy              =   -1717.66956344 Ry
     Harris-Foulkes estimate   =   -1717.86465958 Ry
     estimated scf accuracy    <       2.78680984 Ry

     iteration #  7     ecut=    36.75 Ry     beta= 0.30
     Davidson diagonalization with overlap
     ethr =  2.06E-03,  avg # of iterations =  1.0

     negative rho (up, down):  1.442E+00 0.000E+00

     total cpu time spent up to now is       16.5 secs

     total energy              =   -1717.57356802 Ry
     Harris-Foulkes estimate   =   -1717.71421648 Ry
     estimated scf accuracy    <       0.95930096 Ry

     iteration #  8     ecut=    36.75 Ry     beta= 0.30
     Davidson diagonalization with overlap
     ethr =  7.11E-04,  avg # of iterations =  1.0

     negative rho (up, down):  1.439E+00 0.000E+00

     total cpu time spent up to now is       18.8 secs

     total energy              =   -1717.44703791 Ry
     Harris-Foulkes estimate   =   -1717.66148299 Ry
     estimated scf accuracy    <       3.56311772 Ry

     iteration #  9     ecut=    36.75 Ry     beta= 0.30
     Davidson diagonalization with overlap
     ethr =  7.11E-04,  avg # of iterations =  4.0

     negative rho (up, down):  1.439E+00 0.000E+00

     total cpu time spent up to now is       21.2 secs

     total energy              =   -1717.49522011 Ry
     Harris-Foulkes estimate   =   -1717.50666831 Ry
     estimated scf accuracy    <       1.22703228 Ry

     iteration # 10     ecut=    36.75 Ry     beta= 0.30
     Davidson diagonalization with overlap
     ethr =  7.11E-04,  avg # of iterations =  1.0

     negative rho (up, down):  1.432E+00 0.000E+00

     total cpu time spent up to now is       23.6 secs

     total energy              =   -1717.32960952 Ry
     Harris-Foulkes estimate   =   -1717.49574127 Ry
     estimated scf accuracy    <       1.11157516 Ry

     iteration # 11     ecut=    36.75 Ry     beta= 0.30
     Davidson diagonalization with overlap
     ethr =  7.11E-04,  avg # of iterations =  6.0

     negative rho (up, down):  1.430E+00 0.000E+00

     total cpu time spent up to now is       26.4 secs

     total energy              =   -1717.31473611 Ry
     Harris-Foulkes estimate   =   -1717.39252164 Ry
     estimated scf accuracy    <       0.96412000 Ry

     iteration # 12     ecut=    36.75 Ry     beta= 0.30
     Davidson diagonalization with overlap
     ethr =  7.11E-04,  avg # of iterations =  1.0

     negative rho (up, down):  1.429E+00 0.000E+00

     total cpu time spent up to now is       28.2 secs

     total energy              =   -1717.31319255 Ry
     Harris-Foulkes estimate   =   -1717.34546539 Ry
     estimated scf accuracy    <       0.38588848 Ry

     iteration # 13     ecut=    36.75 Ry     beta= 0.30
     Davidson diagonalization with overlap
     ethr =  2.86E-04,  avg # of iterations =  1.0

     negative rho (up, down):  1.429E+00 0.000E+00

     total cpu time spent up to now is       30.1 secs

     total energy              =   -1717.30795746 Ry
     Harris-Foulkes estimate   =   -1717.33932661 Ry
     estimated scf accuracy    <       1.07288272 Ry

     iteration # 14     ecut=    36.75 Ry     beta= 0.30
     Davidson diagonalization with overlap
     ethr =  2.86E-04,  avg # of iterations =  4.0

     negative rho (up, down):  1.427E+00 0.000E+00

     total cpu time spent up to now is       32.1 secs

     total energy              =   -1717.29321051 Ry
     Harris-Foulkes estimate   =   -1717.33148076 Ry
     estimated scf accuracy    <       0.71090963 Ry

     iteration # 15     ecut=    36.75 Ry     beta= 0.30
     Davidson diagonalization with overlap
     ethr =  2.86E-04,  avg # of iterations = 11.0

     negative rho (up, down):  1.426E+00 0.000E+00

     total cpu time spent up to now is       34.2 secs

     total energy              =   -1717.29702897 Ry
     Harris-Foulkes estimate   =   -1717.32204147 Ry
     estimated scf accuracy    <       0.30946941 Ry

     iteration # 16     ecut=    36.75 Ry     beta= 0.30
     Davidson diagonalization with overlap
     ethr =  2.29E-04,  avg # of iterations =  1.0

     negative rho (up, down):  1.425E+00 0.000E+00

     total cpu time spent up to now is       36.1 secs

     total energy              =   -1717.30354871 Ry
     Harris-Foulkes estimate   =   -1717.31978335 Ry
     estimated scf accuracy    <       0.85047156 Ry

     iteration # 17     ecut=    36.75 Ry     beta= 0.30
     Davidson diagonalization with overlap
     ethr =  2.29E-04,  avg # of iterations =  1.0

     negative rho (up, down):  1.426E+00 0.000E+00

     total cpu time spent up to now is       37.9 secs

     total energy              =   -1717.30369089 Ry
     Harris-Foulkes estimate   =   -1717.31118784 Ry
     estimated scf accuracy    <       0.19669096 Ry

     iteration # 18     ecut=    36.75 Ry     beta= 0.30
     Davidson diagonalization with overlap
     ethr =  1.46E-04,  avg # of iterations =  1.0

     negative rho (up, down):  1.426E+00 0.000E+00

     total cpu time spent up to now is       39.7 secs

     total energy              =   -1717.30436303 Ry
     Harris-Foulkes estimate   =   -1717.30952214 Ry
     estimated scf accuracy    <       0.27414476 Ry

     iteration # 19     ecut=    36.75 Ry     beta= 0.30
     Davidson diagonalization with overlap
     ethr =  1.46E-04,  avg # of iterations =  1.0

     negative rho (up, down):  1.426E+00 0.000E+00

     total cpu time spent up to now is       41.5 secs

     total energy              =   -1717.30400862 Ry
     Harris-Foulkes estimate   =   -1717.30835747 Ry
     estimated scf accuracy    <       0.10014891 Ry

     iteration # 20     ecut=    36.75 Ry     beta= 0.30
     Davidson diagonalization with overlap
     ethr =  7.42E-05,  avg # of iterations =  1.0

     negative rho (up, down):  1.425E+00 0.000E+00

     total cpu time spent up to now is       43.2 secs

     total energy              =   -1717.30363597 Ry
     Harris-Foulkes estimate   =   -1717.30882338 Ry
     estimated scf accuracy    <       0.21917499 Ry

     iteration # 21     ecut=    36.75 Ry     beta= 0.30
     Davidson diagonalization with overlap
     ethr =  7.42E-05,  avg # of iterations =  1.0

     negative rho (up, down):  1.425E+00 0.000E+00

     total cpu time spent up to now is       45.7 secs

     total energy              =   -1717.30504839 Ry
     Harris-Foulkes estimate   =   -1717.31061589 Ry
     estimated scf accuracy    <       0.65844037 Ry

     iteration # 22     ecut=    36.75 Ry     beta= 0.30
     Davidson diagonalization with overlap
     ethr =  7.42E-05,  avg # of iterations =  1.0

     negative rho (up, down):  1.425E+00 0.000E+00

     total cpu time spent up to now is       47.7 secs

     total energy              =   -1717.30469908 Ry
     Harris-Foulkes estimate   =   -1717.30720644 Ry
     estimated scf accuracy    <       0.14613030 Ry

     iteration # 23     ecut=    36.75 Ry     beta= 0.30
     Davidson diagonalization with overlap
     ethr =  7.42E-05,  avg # of iterations =  1.0

     negative rho (up, down):  1.425E+00 0.000E+00

     total cpu time spent up to now is       49.5 secs

     total energy              =   -1717.30536113 Ry
     Harris-Foulkes estimate   =   -1717.30659355 Ry
     estimated scf accuracy    <       0.07245229 Ry

     iteration # 24     ecut=    36.75 Ry     beta= 0.30
     Davidson diagonalization with overlap
     ethr =  5.37E-05,  avg # of iterations =  1.0

     negative rho (up, down):  1.425E+00 0.000E+00

     total cpu time spent up to now is       51.4 secs

     total energy              =   -1717.30490585 Ry
     Harris-Foulkes estimate   =   -1717.30708286 Ry
     estimated scf accuracy    <       0.14754443 Ry

     iteration # 25     ecut=    36.75 Ry     beta= 0.30
     Davidson diagonalization with overlap
     ethr =  5.37E-05,  avg # of iterations =  1.0

     negative rho (up, down):  1.425E+00 0.000E+00

     total cpu time spent up to now is       54.0 secs

     total energy              =   -1717.30586227 Ry
     Harris-Foulkes estimate   =   -1717.30630180 Ry
     estimated scf accuracy    <       0.03312223 Ry

     iteration # 26     ecut=    36.75 Ry     beta= 0.30
     Davidson diagonalization with overlap
     ethr =  2.45E-05,  avg # of iterations =  1.0

     negative rho (up, down):  1.425E+00 0.000E+00

     total cpu time spent up to now is       56.0 secs

     total energy              =   -1717.30589405 Ry
     Harris-Foulkes estimate   =   -1717.30620271 Ry
     estimated scf accuracy    <       0.03481796 Ry

     iteration # 27     ecut=    36.75 Ry     beta= 0.30
     Davidson diagonalization with overlap
     ethr =  2.45E-05,  avg # of iterations =  1.0

     negative rho (up, down):  1.425E+00 0.000E+00

     total cpu time spent up to now is       58.0 secs

     total energy              =   -1717.30576102 Ry
     Harris-Foulkes estimate   =   -1717.30637051 Ry
     estimated scf accuracy    <       0.04896464 Ry

     iteration # 28     ecut=    36.75 Ry     beta= 0.30
     Davidson diagonalization with overlap
     ethr =  2.45E-05,  avg # of iterations =  1.0

     negative rho (up, down):  1.425E+00 0.000E+00

     total cpu time spent up to now is       59.8 secs

     total energy              =   -1717.30602423 Ry
     Harris-Foulkes estimate   =   -1717.30616187 Ry
     estimated scf accuracy    <       0.03661554 Ry

     iteration # 29     ecut=    36.75 Ry     beta= 0.30
     Davidson diagonalization with overlap
     ethr =  2.45E-05,  avg # of iterations =  1.0

     negative rho (up, down):  1.425E+00 0.000E+00

     total cpu time spent up to now is       61.9 secs

     total energy              =   -1717.30577504 Ry
     Harris-Foulkes estimate   =   -1717.30647719 Ry
     estimated scf accuracy    <       0.04192088 Ry

     iteration # 30     ecut=    36.75 Ry     beta= 0.30
     Davidson diagonalization with overlap
     ethr =  2.45E-05,  avg # of iterations =  1.0

     negative rho (up, down):  1.425E+00 0.000E+00

     total cpu time spent up to now is       63.7 secs

     total energy              =   -1717.30600094 Ry
     Harris-Foulkes estimate   =   -1717.30620582 Ry
     estimated scf accuracy    <       0.00993427 Ry

     iteration # 31     ecut=    36.75 Ry     beta= 0.30
     Davidson diagonalization with overlap
     ethr =  7.36E-06,  avg # of iterations =  1.0

     negative rho (up, down):  1.425E+00 0.000E+00

     total cpu time spent up to now is       65.5 secs

     total energy              =   -1717.30590051 Ry
     Harris-Foulkes estimate   =   -1717.30626332 Ry
     estimated scf accuracy    <       0.05648008 Ry

     iteration # 32     ecut=    36.75 Ry     beta= 0.30
     Davidson diagonalization with overlap
     ethr =  7.36E-06,  avg # of iterations =  1.0

     negative rho (up, down):  1.425E+00 0.000E+00

     total cpu time spent up to now is       67.3 secs

     total energy              =   -1717.30602952 Ry
     Harris-Foulkes estimate   =   -1717.30618744 Ry
     estimated scf accuracy    <       0.02001066 Ry

     iteration # 33     ecut=    36.75 Ry     beta= 0.30
     Davidson diagonalization with overlap
     ethr =  7.36E-06,  avg # of iterations =  1.0

     negative rho (up, down):  1.427E+00 0.000E+00

     total cpu time spent up to now is       69.0 secs

     End of self-consistent calculation

          k = 0.0000 0.0000 0.0000 (  8394 PWs)   bands (ev):

   -52.1092 -51.9683 -51.9679 -51.9022 -51.8940 -51.8935 -51.8123 -51.8116
   -51.7023 -51.6431 -51.6423 -51.6054 -51.6050 -51.5888 -51.5646 -51.5272
   -51.5269 -51.4357 -51.4349 -51.2620 -51.1860 -51.1848 -51.1462 -51.0869
   -21.4929 -10.4275  -8.0665  -7.0591  -7.0591  -6.5390  -5.7613  -5.7611
    -5.6670  -5.1826  -5.1825  -4.9602  -4.6132  -4.6131  -4.3562  -3.1248
    -3.1247  -2.8865  -2.7705  -2.7700  -2.6083  -2.6079  -2.5002  -1.9183
    -1.6110  -1.6106  -1.1108  -1.1105  -1.0729  -0.6636  -0.6633  -0.6006
    -0.1536  -0.1534   0.0898   0.0939   0.3576   0.3579   0.7016   0.7019
     0.7570   0.9136   0.9141   0.9147   0.9153   0.9159   1.1860   1.6843
     1.6844   2.6836   3.1865   3.1866   3.3165   4.4072   4.8196   5.2836
     5.5772   6.0952

     the Fermi energy is     0.9147 ev

!    total energy              =   -1717.30514358 Ry
     Harris-Foulkes estimate   =   -1717.30613671 Ry
     estimated scf accuracy    <       0.00121450 Ry

     The total energy is the sum of the following terms:

     one-electron contribution =  -12453.42817337 Ry
     hartree contribution      =    6245.48875334 Ry
     xc contribution           =    -463.73566297 Ry
     ewald contribution        =    4954.37095596 Ry
     smearing contrib. (-TS)   =      -0.00101654 Ry

     convergence has been achieved in  33 iterations

     negative rho (up, down):  1.427E+00 0.000E+00

     Forces acting on atoms (cartesian axes, Ry/au):

     atom    1 type  1   force =    -0.00043308   -0.00053738   -0.03708504
     atom    2 type  1   force =    -0.00027475    0.00669646   -0.00399694
     atom    3 type  1   force =     0.00358375   -0.00361266   -0.00446500
     atom    4 type  1   force =    -0.00483069   -0.00402789   -0.00388385
     atom    5 type  1   force =    -0.00022948    0.00033050    0.00429051
     atom    6 type  1   force =    -0.00051605   -0.11323641   -0.04211262
     atom    7 type  1   force =    -0.09941280    0.05555613   -0.04066837
     atom    8 type  1   force =     0.09826794    0.05565577   -0.03946153
     atom    9 type  2   force =     0.00418585    0.00319003    0.14073695
     atom   10 type  3   force =    -0.00034068   -0.00001455    0.02664589

     Total force =     0.253168     Total SCF correction =     0.039211
     SCF correction compared to forces is large: reduce conv_thr to get better values

     Writing output data file calc.save/

     init_run     :      1.72s CPU      1.84s WALL (       1 calls)
     electrons    :     60.18s CPU     67.14s WALL (       1 calls)
     forces       :      0.84s CPU      0.90s WALL (       1 calls)

     Called by init_run:
     wfcinit      :      0.51s CPU      0.51s WALL (       1 calls)
     potinit      :      0.29s CPU      0.31s WALL (       1 calls)
     hinit0       :      0.67s CPU      0.68s WALL (       1 calls)

     Called by electrons:
     c_bands      :     31.79s CPU     31.14s WALL (      33 calls)
     sum_band     :     15.55s CPU     18.78s WALL (      33 calls)
     v_of_rho     :      4.87s CPU      5.85s WALL (      34 calls)
     newd         :      7.60s CPU     10.63s WALL (      34 calls)
     mix_rho      :      0.66s CPU      1.11s WALL (      33 calls)

     Called by c_bands:
     init_us_2    :      0.33s CPU      0.35s WALL (      67 calls)
     regterg      :     30.11s CPU     29.36s WALL (      33 calls)

     Called by sum_band:
     sum_band:bec :      0.00s CPU      0.00s WALL (      33 calls)
     addusdens    :      9.51s CPU     12.37s WALL (      33 calls)

     Called by *egterg:
     h_psi        :     23.00s CPU     22.95s WALL (     106 calls)
     s_psi        :      1.43s CPU      0.51s WALL (     106 calls)
     g_psi        :      0.10s CPU      0.11s WALL (      72 calls)
     rdiaghg      :      1.10s CPU      0.91s WALL (     105 calls)

     Called by h_psi:
     h_psi:pot    :     22.90s CPU     22.85s WALL (     106 calls)
     h_psi:calbec :      0.94s CPU      0.92s WALL (     106 calls)
     vloc_psi     :     20.50s CPU     21.39s WALL (     106 calls)
     add_vuspsi   :      1.46s CPU      0.53s WALL (     106 calls)

     General routines
     calbec       :      1.39s CPU      1.39s WALL (     143 calls)
     fft          :      1.88s CPU      2.12s WALL (     316 calls)
     ffts         :      0.20s CPU      0.21s WALL (      33 calls)
     fftw         :     22.33s CPU     23.34s WALL (    7175 calls)


     PWSCF        :  1m 2.82s CPU     1m10.01s WALL


   This run was terminated on:  12:52:58  17May2019            

=------------------------------------------------------------------------------=
   JOB DONE.
=------------------------------------------------------------------------------=
